                         Program Version 6.0.0  -   RELEASE  -
|  1> ! wB97X-D3 def2-TZVP def2/J RIJCOSX CPCM(benzene) optTS freq tightSCF noautostart miniprint nopop
|  2>
|  3> %geom
|  4> MaxIter 150
|  5> Convergence tight
|  6> end
|  7>
|  8> %maxcore  1000
|  9>
| 10> %pal nprocs   16 end
| 11>
| 12> *xyz 0 2
| 13> C    1.90576    -1.028429    3.432169
| 14> C    3.137542    -0.157706    3.296497
| 15> C    3.68808    0.220705    1.999511
| 16> C    5.024716    0.648906    1.931163
| 17> C    5.594276    1.051345    0.738691
| 18> C    4.8482    1.029024    -0.434407
| 19> C    3.53874    0.57351    -0.396661
| 20> C    2.967924    0.169041    0.799436
| 21> C    0.501923    -0.452797    3.408276
| 22> C    0.092228    0.586825    2.578888
| 23> C    -1.223244    1.028771    2.581364
| 24> C    -2.161063    0.442754    3.417138
| 25> C    -1.768537    -0.592997    4.251982
| 26> C    -0.453492    -1.031162    4.24329
| 27> H    2.002106    -1.574798    4.371456
| 28> H    1.9615    -1.793741    2.645629
| 29> H    3.918702    -0.474398    3.978625
| 30> H    5.618499    0.664492    2.839658
| 31> H    6.6262    1.38245    0.720287
| 32> H    5.288943    1.3512    -1.370154
| 33> H    2.954246    0.529372    -1.308291
| 34> H    1.952792    -0.20596    0.792219
| 35> H    0.803321    1.085229    1.934885
| 36> H    -1.510548    1.843067    1.925982
| 37> H    -3.187167    0.790962    3.419895
| 38> H    -2.486095    -1.059613    4.917063
| 39> H    -0.156241    -1.834955    4.908969
| 40> C    1.993384    2.497707    4.11515
| 41> C    2.999331    1.641686    4.529891
| 42> C    2.947333    0.979942    5.857149
| 43> C    4.142297    0.619831    6.480964
| 44> C    4.146997    -0.011816    7.714536
| 45> C    2.949967    -0.302391    8.351769
| 46> C    1.753374    0.049066    7.742791
| 47> C    1.751138    0.683565    6.511242
| 48> C    2.054483    3.434492    3.016008
| 49> C    3.204765    3.653553    2.243465
| 50> C    3.191979    4.53891    1.181474
| 51> C    2.036217    5.240274    0.860776
| 52> C    0.890698    5.050038    1.623429
| 53> C    0.900432    4.162906    2.684047
| 54> H    1.036425    2.453129    4.62223
| 55> H    4.007025    1.87205    4.201928
| 56> H    5.083872    0.842958    5.989471
| 57> H    5.089637    -0.277361    8.178864
| 58> H    2.948773    -0.798386    9.315032
| 59> H    0.810781    -0.172682    8.229843
| 60> H    0.803454    0.937894    6.053193
| 61> H    4.118122    3.119331    2.46826
| 62> H    4.09336    4.680878    0.596515
| 63> H    2.029207    5.929662    0.025021
| 64> H    -0.015309    5.59629    1.387596
| 65> H    0.001064    4.014991    3.272177
| 66> *
| 67>
| 68>
| 69>                          ****END OF INPUT****
Dispersion correction           -0.033680070
FINAL SINGLE POINT ENERGY     -1082.039410758897
Dispersion correction             ... done (  0.0 sec)
Dispersion correction           -0.033894658
FINAL SINGLE POINT ENERGY     -1082.039084856204
Dispersion correction             ... done (  0.0 sec)
Dispersion correction           -0.033971384
FINAL SINGLE POINT ENERGY     -1082.038999887569
Dispersion correction             ... done (  0.0 sec)
FINAL SINGLE POINT ENERGY     -1082.039324405163
FINAL SINGLE POINT ENERGY     -1082.039333688976
FINAL SINGLE POINT ENERGY     -1082.039321350298
FINAL SINGLE POINT ENERGY     -1082.039339002106
FINAL SINGLE POINT ENERGY     -1082.039382867904
FINAL SINGLE POINT ENERGY     -1082.039404072939
FINAL SINGLE POINT ENERGY     -1082.039400912259
FINAL SINGLE POINT ENERGY     -1082.039464103059
FINAL SINGLE POINT ENERGY     -1082.039474713302
FINAL SINGLE POINT ENERGY     -1082.039481171493
FINAL SINGLE POINT ENERGY     -1082.039484203994
FINAL SINGLE POINT ENERGY     -1082.039485853321
FINAL SINGLE POINT ENERGY     -1082.039485758572
FINAL SINGLE POINT ENERGY     -1082.039485330965
Dispersion correction             ... done (  0.0 sec)
Dispersion correction           -0.033974677
FINAL SINGLE POINT ENERGY     -1082.039485750996
Dispersion correction             ... done (  0.0 sec)
Dispersion correction           -0.033975284
FINAL SINGLE POINT ENERGY     -1082.039486056590
Dispersion correction             ... done (  0.0 sec)
                    ***********************HURRAY********************

CARTESIAN COORDINATES (ANGSTROEM)
---------------------------------
  C      1.878005   -1.030970    3.388327
  C      3.128035   -0.180380    3.291922
  C      3.708311    0.206363    2.011623
  C      5.046508    0.633531    1.976773
  C      5.640904    1.050190    0.801363
  C      4.919764    1.040523   -0.387713
  C      3.610447    0.582261   -0.383375
  C      3.014505    0.165390    0.795989
  C      0.490403   -0.416809    3.377096
  C      0.092863    0.604215    2.518912
  C     -1.206833    1.088853    2.536917
  C     -2.141838    0.563574    3.415817
  C     -1.762252   -0.455214    4.277022
  C     -0.461987   -0.936041    4.252501
  H      1.954976   -1.610431    4.309285
  H      1.920380   -1.768636    2.575371
  H      3.888898   -0.511593    3.989960
  H      5.620453    0.638762    2.898125
  H      6.672660    1.381917    0.808290
  H      5.380150    1.373110   -1.310135
  H      3.046142    0.546128   -1.307884
  H      2.000435   -0.211351    0.763900
  H      0.804093    1.058366    1.842867
  H     -1.482908    1.890743    1.861866
  H     -3.155402    0.946165    3.431122
  H     -2.477821   -0.874444    4.974836
  H     -0.173341   -1.725217    4.938954
  C      1.967265    2.460449    4.122395
  C      2.987450    1.617234    4.527088
  C      2.957891    0.956118    5.854714
  C      4.164430    0.639109    6.479125
  C      4.190700    0.012366    7.715104
  C      3.003933   -0.317025    8.353045
  C      1.795873   -0.009727    7.742163
  C      1.772189    0.620717    6.508655
  C      2.006023    3.391606    3.017436
  C      3.141156    3.606746    2.222042
  C      3.108706    4.489008    1.157653
  C      1.947252    5.190020    0.856692
  C      0.816011    5.002282    1.641558
  C      0.846142    4.118743    2.704821
  H      1.017497    2.407671    4.642428
  H      3.988676    1.860242    4.188258
  H      5.097295    0.893226    5.985991
  H      5.141690   -0.217714    8.181073
  H      3.019388   -0.809394    9.317932
  H      0.861680   -0.264229    8.229257
  H      0.817035    0.837798    6.046813
  H      4.057947    3.071067    2.428531
  H      3.998718    4.628140    0.555008
  H      1.924607    5.876890    0.019256
  H     -0.094512    5.547142    1.420839
  H     -0.042479    3.970124    3.308777

ORBITAL ENERGIES
----------------
                 SPIN UP ORBITALS
  NO   OCC          E(Eh)            E(eV)
   0   1.0000     -10.298698      -280.2418
   1   1.0000     -10.294181      -280.1189
   2   1.0000     -10.292245      -280.0662
   3   1.0000     -10.289264      -279.9851
   4   1.0000     -10.288493      -279.9641
   5   1.0000     -10.287213      -279.9293
   6   1.0000     -10.281957      -279.7863
   7   1.0000     -10.280375      -279.7432
   8   1.0000     -10.279921      -279.7309
   9   1.0000     -10.279812      -279.7279
  10   1.0000     -10.279486      -279.7190
  11   1.0000     -10.279149      -279.7099
  12   1.0000     -10.278897      -279.7030
  13   1.0000     -10.278310      -279.6870
  14   1.0000     -10.278077      -279.6807
  15   1.0000     -10.278039      -279.6797
  16   1.0000     -10.277416      -279.6627
  17   1.0000     -10.277129      -279.6549
  18   1.0000     -10.276955      -279.6502
  19   1.0000     -10.276682      -279.6427
  20   1.0000     -10.276456      -279.6366
  21   1.0000     -10.276366      -279.6341
  22   1.0000     -10.276118      -279.6274
  23   1.0000     -10.275837      -279.6197
  24   1.0000     -10.275626      -279.6140
  25   1.0000     -10.275111      -279.6000
  26   1.0000     -10.274869      -279.5934
  27   1.0000     -10.273104      -279.5454
  28   1.0000      -0.990124       -26.9426
  29   1.0000      -0.983042       -26.7499
  30   1.0000      -0.979225       -26.6461
  31   1.0000      -0.978696       -26.6317
  32   1.0000      -0.927553       -25.2400
  33   1.0000      -0.912011       -24.8171
  34   1.0000      -0.880124       -23.9494
  35   1.0000      -0.878431       -23.9033
  36   1.0000      -0.866093       -23.5676
  37   1.0000      -0.864270       -23.5180
  38   1.0000      -0.862795       -23.4779
  39   1.0000      -0.860543       -23.4166
  40   1.0000      -0.828821       -22.5534
  41   1.0000      -0.824055       -22.4237
  42   1.0000      -0.761366       -20.7178
  43   1.0000      -0.747332       -20.3359
  44   1.0000      -0.721289       -19.6273
  45   1.0000      -0.718854       -19.5610
  46   1.0000      -0.715384       -19.4666
  47   1.0000      -0.709799       -19.3146
  48   1.0000      -0.700094       -19.0505
  49   1.0000      -0.696837       -18.9619
  50   1.0000      -0.672643       -18.3035
  51   1.0000      -0.658786       -17.9265
  52   1.0000      -0.627819       -17.0838
  53   1.0000      -0.621505       -16.9120
  54   1.0000      -0.619450       -16.8561
  55   1.0000      -0.609452       -16.5840
  56   1.0000      -0.578317       -15.7368
  57   1.0000      -0.571502       -15.5514
  58   1.0000      -0.564904       -15.3718
  59   1.0000      -0.561387       -15.2761
  60   1.0000      -0.555911       -15.1271
  61   1.0000      -0.554275       -15.0826
  62   1.0000      -0.547891       -14.9089
  63   1.0000      -0.538162       -14.6441
  64   1.0000      -0.534846       -14.5539
  65   1.0000      -0.531195       -14.4545
  66   1.0000      -0.525646       -14.3035
  67   1.0000      -0.518371       -14.1056
  68   1.0000      -0.516320       -14.0498
  69   1.0000      -0.512853       -13.9554
  70   1.0000      -0.511839       -13.9278
  71   1.0000      -0.507758       -13.8168
  72   1.0000      -0.493235       -13.4216
  73   1.0000      -0.489381       -13.3167
  74   1.0000      -0.480239       -13.0680
  75   1.0000      -0.478693       -13.0259
  76   1.0000      -0.476895       -12.9770
  77   1.0000      -0.468306       -12.7432
  78   1.0000      -0.456669       -12.4266
  79   1.0000      -0.446070       -12.1382
  80   1.0000      -0.441308       -12.0086
  81   1.0000      -0.434133       -11.8134
  82   1.0000      -0.433082       -11.7848
  83   1.0000      -0.431027       -11.7288
  84   1.0000      -0.428530       -11.6609
  85   1.0000      -0.426301       -11.6002
  86   1.0000      -0.422379       -11.4935
  87   1.0000      -0.420457       -11.4412
  88   1.0000      -0.369652       -10.0587
  89   1.0000      -0.352006        -9.5786
  90   1.0000      -0.347988        -9.4692
  91   1.0000      -0.344654        -9.3785
  92   1.0000      -0.342782        -9.3276
  93   1.0000      -0.336234        -9.1494
  94   1.0000      -0.329569        -8.9680
  95   1.0000      -0.304011        -8.2726
  96   1.0000      -0.241625        -6.5749
  97   0.0000       0.018471         0.5026
  98   0.0000       0.057042         1.5522
  99   0.0000       0.059916         1.6304
 100   0.0000       0.061406         1.6709
 101   0.0000       0.067014         1.8235

                 SPIN DOWN ORBITALS
  NO   OCC          E(Eh)            E(eV)
   0   1.0000     -10.296903      -280.1930
   1   1.0000     -10.292300      -280.0677
   2   1.0000     -10.291630      -280.0495
   3   1.0000     -10.289737      -279.9980
   4   1.0000     -10.288929      -279.9760
   5   1.0000     -10.288589      -279.9667
   6   1.0000     -10.282273      -279.7949
   7   1.0000     -10.280385      -279.7435
   8   1.0000     -10.279725      -279.7255
   9   1.0000     -10.279709      -279.7251
  10   1.0000     -10.279278      -279.7134
  11   1.0000     -10.278454      -279.6909
  12   1.0000     -10.277791      -279.6729
  13   1.0000     -10.277480      -279.6644
  14   1.0000     -10.277387      -279.6619
  15   1.0000     -10.277251      -279.6582
  16   1.0000     -10.277201      -279.6569
  17   1.0000     -10.276889      -279.6484
  18   1.0000     -10.276748      -279.6445
  19   1.0000     -10.276671      -279.6424
  20   1.0000     -10.276423      -279.6357
  21   1.0000     -10.275631      -279.6141
  22   1.0000     -10.275285      -279.6047
  23   1.0000     -10.275278      -279.6045
  24   1.0000     -10.275150      -279.6010
  25   1.0000     -10.274887      -279.5939
  26   1.0000     -10.273889      -279.5667
  27   1.0000     -10.273104      -279.5454
  28   1.0000      -0.988485       -26.8981
  29   1.0000      -0.982111       -26.7246
  30   1.0000      -0.978167       -26.6173
  31   1.0000      -0.977688       -26.6042
  32   1.0000      -0.923127       -25.1196
  33   1.0000      -0.907022       -24.6813
  34   1.0000      -0.878424       -23.9031
  35   1.0000      -0.877171       -23.8690
  36   1.0000      -0.864954       -23.5366
  37   1.0000      -0.864451       -23.5229
  38   1.0000      -0.861366       -23.4390
  39   1.0000      -0.860089       -23.4042
  40   1.0000      -0.825006       -22.4495
  41   1.0000      -0.820380       -22.3237
  42   1.0000      -0.754080       -20.5196
  43   1.0000      -0.743418       -20.2294
  44   1.0000      -0.720717       -19.6117
  45   1.0000      -0.718681       -19.5563
  46   1.0000      -0.714634       -19.4462
  47   1.0000      -0.709313       -19.3014
  48   1.0000      -0.698951       -19.0194
  49   1.0000      -0.696257       -18.9461
  50   1.0000      -0.669216       -18.2103
  51   1.0000      -0.656401       -17.8616
  52   1.0000      -0.626298       -17.0424
  53   1.0000      -0.620983       -16.8978
  54   1.0000      -0.617600       -16.8057
  55   1.0000      -0.606453       -16.5024
  56   1.0000      -0.576221       -15.6798
  57   1.0000      -0.570414       -15.5218
  58   1.0000      -0.564173       -15.3519
  59   1.0000      -0.560195       -15.2437
  60   1.0000      -0.555397       -15.1131
  61   1.0000      -0.553804       -15.0698
  62   1.0000      -0.544961       -14.8291
  63   1.0000      -0.537498       -14.6261
  64   1.0000      -0.533406       -14.5147
  65   1.0000      -0.528923       -14.3927
  66   1.0000      -0.523673       -14.2499
  67   1.0000      -0.518034       -14.0964
  68   1.0000      -0.515194       -14.0191
  69   1.0000      -0.512172       -13.9369
  70   1.0000      -0.510948       -13.9036
  71   1.0000      -0.506411       -13.7801
  72   1.0000      -0.490795       -13.3552
  73   1.0000      -0.484884       -13.1944
  74   1.0000      -0.478660       -13.0250
  75   1.0000      -0.476009       -12.9529
  76   1.0000      -0.473796       -12.8926
  77   1.0000      -0.466775       -12.7016
  78   1.0000      -0.454461       -12.3665
  79   1.0000      -0.445409       -12.1202
  80   1.0000      -0.437524       -11.9056
  81   1.0000      -0.433463       -11.7951
  82   1.0000      -0.431573       -11.7437
  83   1.0000      -0.429995       -11.7008
  84   1.0000      -0.427241       -11.6258
  85   1.0000      -0.424988       -11.5645
  86   1.0000      -0.420282       -11.4365
  87   1.0000      -0.409840       -11.1523
  88   1.0000      -0.353946        -9.6314
  89   1.0000      -0.349470        -9.5096
  90   1.0000      -0.344654        -9.3785
  91   1.0000      -0.341894        -9.3034
  92   1.0000      -0.339354        -9.2343
  93   1.0000      -0.334530        -9.1030
  94   1.0000      -0.327756        -8.9187
  95   1.0000      -0.290493        -7.9047
  96   0.0000      -0.017695        -0.4815
  97   0.0000       0.029788         0.8106
  98   0.0000       0.057846         1.5741
  99   0.0000       0.062250         1.6939
 100   0.0000       0.063331         1.7233

Total SCF time: 0 days 0 hours 2 min 41 sec
Finished LeanSCF after 162.3 sec

Dispersion correction           -0.033977132
FINAL SINGLE POINT ENERGY     -1082.039486755803

DIPOLE MOMENT
-------------

Method             : SCF
Type of density    : Electron Density
Multiplicity       :   2
Irrep              :   0
Energy             : -1082.0055096235676046 Eh
Relativity type    :
Basis              : AO
                                X                 Y                 Z
Electronic contribution:      0.438738671       1.510033590       0.436006148
Nuclear contribution   :     -0.328265276      -1.781800159      -0.454202295
                        -----------------------------------------
Total Dipole Moment    :      0.110473395      -0.271766568      -0.018196147
                        -----------------------------------------
Magnitude (a.u.)       :      0.293926076
Magnitude (Debye)      :      0.747100713

VIBRATIONAL FREQUENCIES
-----------------------

Scaling factor for frequencies =  1.000000000  (already applied!)

     0:       0.00 cm**-1
     1:       0.00 cm**-1
     2:       0.00 cm**-1
     3:       0.00 cm**-1
     4:       0.00 cm**-1
     5:       0.00 cm**-1
     6:    -657.48 cm**-1 ***imaginary mode***
     7:       6.84 cm**-1
     8:      13.99 cm**-1
     9:      37.91 cm**-1
    10:      42.32 cm**-1
    11:      48.37 cm**-1
    12:      61.04 cm**-1
    13:      68.08 cm**-1
    14:      80.08 cm**-1
    15:      89.28 cm**-1
    16:      96.14 cm**-1
    17:     117.95 cm**-1
    18:     164.57 cm**-1
    19:     176.00 cm**-1
    20:     194.35 cm**-1
    21:     208.78 cm**-1
    22:     232.43 cm**-1
    23:     244.39 cm**-1
    24:     276.06 cm**-1
    25:     282.36 cm**-1
    26:     315.88 cm**-1
    27:     369.55 cm**-1
    28:     421.40 cm**-1
    29:     422.18 cm**-1
    30:     423.48 cm**-1
    31:     432.31 cm**-1
    32:     468.66 cm**-1
    33:     491.60 cm**-1
    34:     505.41 cm**-1
    35:     511.29 cm**-1
    36:     527.54 cm**-1
    37:     536.41 cm**-1
    38:     551.97 cm**-1
    39:     569.95 cm**-1
    40:     631.93 cm**-1
    41:     633.92 cm**-1
    42:     637.82 cm**-1
    43:     638.22 cm**-1
    44:     653.43 cm**-1
    45:     658.58 cm**-1
    46:     711.89 cm**-1
    47:     719.28 cm**-1
    48:     723.47 cm**-1
    49:     731.31 cm**-1
    50:     744.19 cm**-1
    51:     764.78 cm**-1
    52:     772.90 cm**-1
    53:     784.16 cm**-1
    54:     793.96 cm**-1
    55:     807.73 cm**-1
    56:     833.73 cm**-1
    57:     845.95 cm**-1
    58:     865.67 cm**-1
    59:     869.17 cm**-1
    60:     877.38 cm**-1
    61:     879.35 cm**-1
    62:     884.02 cm**-1
    63:     902.37 cm**-1
    64:     931.46 cm**-1
    65:     945.58 cm**-1
    66:     952.55 cm**-1
    67:     953.29 cm**-1
    68:     976.10 cm**-1
    69:    1007.13 cm**-1
    70:    1009.33 cm**-1
    71:    1013.07 cm**-1
    72:    1013.42 cm**-1
    73:    1017.19 cm**-1
    74:    1018.12 cm**-1
    75:    1019.28 cm**-1
    76:    1021.04 cm**-1
    77:    1021.69 cm**-1
    78:    1024.21 cm**-1
    79:    1025.17 cm**-1
    80:    1026.01 cm**-1
    81:    1032.18 cm**-1
    82:    1058.60 cm**-1
    83:    1059.99 cm**-1
    84:    1063.95 cm**-1
    85:    1064.95 cm**-1
    86:    1086.62 cm**-1
    87:    1110.90 cm**-1
    88:    1114.20 cm**-1
    89:    1117.30 cm**-1
    90:    1122.92 cm**-1
    91:    1173.30 cm**-1
    92:    1173.70 cm**-1
    93:    1173.78 cm**-1
    94:    1175.47 cm**-1
    95:    1201.64 cm**-1
    96:    1202.73 cm**-1
    97:    1207.56 cm**-1
    98:    1212.21 cm**-1
    99:    1214.68 cm**-1
   100:    1226.05 cm**-1
   101:    1237.96 cm**-1
   102:    1248.04 cm**-1
   103:    1251.47 cm**-1
   104:    1286.37 cm**-1
   105:    1295.95 cm**-1
   106:    1315.15 cm**-1
   107:    1325.23 cm**-1
   108:    1330.15 cm**-1
   109:    1351.71 cm**-1
   110:    1352.67 cm**-1
   111:    1356.74 cm**-1
   112:    1362.87 cm**-1
   113:    1371.99 cm**-1
   114:    1392.12 cm**-1
   115:    1414.55 cm**-1
   116:    1466.21 cm**-1
   117:    1479.80 cm**-1
   118:    1497.29 cm**-1
   119:    1498.28 cm**-1
   120:    1501.56 cm**-1
   121:    1532.69 cm**-1
   122:    1535.60 cm**-1
   123:    1542.63 cm**-1
   124:    1547.64 cm**-1
   125:    1561.27 cm**-1
   126:    1641.82 cm**-1
   127:    1642.44 cm**-1
   128:    1657.66 cm**-1
   129:    1660.53 cm**-1
   130:    1661.58 cm**-1
   131:    1662.34 cm**-1
   132:    1680.45 cm**-1
   133:    1684.46 cm**-1
   134:    3018.88 cm**-1
   135:    3110.88 cm**-1
   136:    3173.41 cm**-1
   137:    3179.43 cm**-1
   138:    3181.75 cm**-1
   139:    3183.92 cm**-1
   140:    3184.18 cm**-1
   141:    3188.51 cm**-1
   142:    3194.59 cm**-1
   143:    3194.78 cm**-1
   144:    3196.47 cm**-1
   145:    3196.66 cm**-1
   146:    3197.86 cm**-1
   147:    3204.42 cm**-1
   148:    3205.34 cm**-1
   149:    3205.79 cm**-1
   150:    3206.00 cm**-1
   151:    3217.40 cm**-1
   152:    3217.49 cm**-1
   153:    3218.72 cm**-1
   154:    3218.88 cm**-1
   155:    3223.79 cm**-1
   156:    3225.19 cm**-1
   157:    3233.82 cm**-1
   158:    3239.78 cm**-1

IR SPECTRUM
-----------

 Mode   freq       eps      Int      T**2         TX        TY        TZ
       cm**-1   L/(mol*cm) km/mol    a.u.
----------------------------------------------------------------------------
  7:      6.84   0.000007    0.03  0.000308  ( 0.014320 -0.006560  0.007735)
  8:     13.99   0.000000    0.00  0.000006  (-0.002042  0.000985 -0.000794)
  9:     37.91   0.000008    0.04  0.000062  (-0.002505  0.005402 -0.005130)
 10:     42.32   0.000005    0.03  0.000037  ( 0.003449  0.004148 -0.002828)
 11:     48.37   0.000038    0.19  0.000243  ( 0.001881 -0.012422 -0.009207)
 12:     61.04   0.000026    0.13  0.000131  ( 0.000281  0.011359  0.001341)
 13:     68.08   0.000008    0.04  0.000038  ( 0.001673 -0.004267 -0.004109)
 14:     80.08   0.000004    0.02  0.000017  ( 0.001952 -0.001203  0.003440)
 15:     89.28   0.000018    0.09  0.000063  ( 0.002240  0.007089 -0.002813)
 16:     96.14   0.000025    0.13  0.000081  ( 0.008620  0.000660  0.002480)
 17:    117.95   0.000016    0.08  0.000041  (-0.004665 -0.003201 -0.003049)
 18:    164.57   0.000143    0.72  0.000271  ( 0.002232  0.002661 -0.016081)
 19:    176.00   0.000080    0.41  0.000143  ( 0.004250 -0.001820  0.011014)
 20:    194.35   0.000324    1.64  0.000520  ( 0.014550 -0.011405  0.013346)
 21:    208.78   0.000011    0.05  0.000016  (-0.001239 -0.000983 -0.003691)
 22:    232.43   0.000164    0.83  0.000220  ( 0.000077  0.010673  0.010308)
 23:    244.39   0.000398    2.01  0.000508  ( 0.000088 -0.001473 -0.022491)
 24:    276.06   0.000064    0.32  0.000073  ( 0.006124  0.002549 -0.005346)
 25:    282.36   0.000110    0.55  0.000121  (-0.002666  0.004421 -0.009716)
 26:    315.88   0.000247    1.25  0.000244  (-0.005109 -0.014626  0.002105)
 27:    369.55   0.000597    3.02  0.000504  (-0.002343 -0.001127  0.022308)
 28:    421.40   0.000003    0.01  0.000002  ( 0.000964  0.000986  0.000046)
 29:    422.18   0.000015    0.07  0.000011  ( 0.001347 -0.000280  0.002983)
 30:    423.48   0.000015    0.07  0.000011  (-0.002014  0.001985 -0.001700)
 31:    432.31   0.000004    0.02  0.000003  (-0.001188  0.001104 -0.000592)
 32:    468.66   0.001045    5.28  0.000696  ( 0.002483  0.012773  0.022951)
 33:    491.60   0.000427    2.16  0.000271  (-0.012151  0.000782 -0.011079)
 34:    505.41   0.000480    2.43  0.000296  (-0.006273 -0.014915 -0.005889)
 35:    511.29   0.001132    5.72  0.000691  (-0.016825  0.005663 -0.019381)
 36:    527.54   0.001939    9.80  0.001147  ( 0.015169  0.030223  0.001815)
 37:    536.41   0.006156   31.11  0.003581  (-0.002914  0.051452  0.030420)
 38:    551.97   0.003775   19.08  0.002134  (-0.004130 -0.018042 -0.042327)
 39:    569.95   0.003057   15.45  0.001674  ( 0.007075 -0.040030 -0.004644)
 40:    631.93   0.000036    0.18  0.000018  (-0.001938 -0.003663 -0.000763)
 41:    633.92   0.000034    0.17  0.000017  ( 0.000369  0.001680  0.003702)
 42:    637.82   0.000023    0.12  0.000011  (-0.001912 -0.000481 -0.002740)
 43:    638.22   0.000036    0.18  0.000018  (-0.003453 -0.001063  0.002174)
 44:    653.43   0.000456    2.30  0.000218  (-0.003666  0.004331  0.013617)
 45:    658.58   0.000723    3.65  0.000342  (-0.013015 -0.012061  0.005246)
 46:    711.89   0.009243   46.71  0.004052  (-0.019225 -0.043939 -0.041852)
 47:    719.28   0.019875  100.44  0.008623  (-0.005145  0.086131  0.034320)
 48:    723.47   0.012988   65.64  0.005602  ( 0.009581  0.065724  0.034509)
 49:    731.31   0.004382   22.15  0.001870  ( 0.030787  0.010520  0.028486)
 50:    744.19   0.004574   23.12  0.001918  ( 0.000371 -0.016015 -0.040761)
 51:    764.78   0.002887   14.59  0.001178  (-0.021743 -0.017635 -0.019859)
 52:    772.90   0.001670    8.44  0.000674  ( 0.012868  0.016088  0.015809)
 53:    784.16   0.007835   39.59  0.003118  (-0.021023  0.051022  0.008527)
 54:    793.96   0.009613   48.58  0.003778  ( 0.005864  0.055700  0.025328)
 55:    807.73   0.010263   51.87  0.003965  (-0.004128 -0.037425 -0.050473)
 56:    833.73   0.001043    5.27  0.000390  ( 0.010094  0.006129  0.015837)
 57:    845.95   0.000219    1.10  0.000081  ( 0.000426 -0.008591 -0.002579)
 58:    865.67   0.000044    0.22  0.000016  ( 0.002890  0.002758 -0.000173)
 59:    869.17   0.000712    3.60  0.000256  ( 0.006610  0.012461  0.007524)
 60:    877.38   0.000754    3.81  0.000268  ( 0.003036  0.013344  0.008994)
 61:    879.35   0.000487    2.46  0.000173  ( 0.004418  0.004997  0.011333)
 62:    884.02   0.000090    0.46  0.000032  (-0.000805  0.005499 -0.000989)
 63:    902.37   0.001288    6.51  0.000445  (-0.009611 -0.015959 -0.009918)
 64:    931.46   0.000103    0.52  0.000035  ( 0.000340 -0.000946 -0.005792)
 65:    945.58   0.002313   11.69  0.000763  (-0.003625 -0.022746 -0.015263)
 66:    952.55   0.000785    3.97  0.000257  ( 0.014543  0.002557  0.006247)
 67:    953.29   0.000593    3.00  0.000194  ( 0.006142 -0.011269 -0.005422)
 68:    976.10   0.003268   16.52  0.001045  ( 0.002221  0.023116  0.022484)
 69:   1007.13   0.000017    0.09  0.000005  ( 0.000573 -0.000617  0.002142)
 70:   1009.33   0.000090    0.45  0.000028  ( 0.005050  0.000967  0.001174)
 71:   1013.07   0.000077    0.39  0.000024  (-0.003190  0.001849  0.003167)
 72:   1013.42   0.001617    8.17  0.000498  (-0.006003  0.007731  0.020056)
 73:   1017.19   0.000000    0.00  0.000000  (-0.000029  0.000089  0.000128)
 74:   1018.12   0.000282    1.42  0.000086  (-0.000587  0.002610  0.008896)
 75:   1019.28   0.000493    2.49  0.000151  ( 0.002820 -0.010598 -0.005546)
 76:   1021.04   0.001298    6.56  0.000397  ( 0.003055 -0.013996 -0.013836)
 77:   1021.69   0.000102    0.52  0.000031  (-0.003632  0.004253  0.000004)
 78:   1024.21   0.000207    1.04  0.000063  (-0.001388 -0.005012 -0.005996)
 79:   1025.17   0.000121    0.61  0.000037  ( 0.001254 -0.002614 -0.005343)
 80:   1026.01   0.000203    1.02  0.000062  (-0.003316  0.003568  0.006153)
 81:   1032.18   0.000073    0.37  0.000022  ( 0.004338 -0.001160  0.001388)
 82:   1058.60   0.002072   10.47  0.000611  (-0.013157 -0.000779  0.020909)
 83:   1059.99   0.000533    2.70  0.000157  ( 0.004521 -0.011393  0.002610)
 84:   1063.95   0.002463   12.45  0.000723  (-0.002810  0.013453 -0.023102)
 85:   1064.95   0.000998    5.04  0.000292  ( 0.016625  0.003908 -0.000821)
 86:   1086.62   0.001209    6.11  0.000347  (-0.015277  0.009743  0.004338)
 87:   1110.90   0.002358   11.92  0.000662  (-0.025407  0.002596  0.003180)
 88:   1114.20   0.000168    0.85  0.000047  ( 0.005525 -0.001013 -0.003950)
 89:   1117.30   0.001063    5.37  0.000297  ( 0.014716  0.007422 -0.005029)
 90:   1122.92   0.001938    9.79  0.000539  ( 0.009826 -0.002851  0.020831)
 91:   1173.30   0.000045    0.23  0.000012  (-0.001202 -0.001748 -0.002745)
 92:   1173.70   0.000009    0.05  0.000002  (-0.000141 -0.000886  0.001269)
 93:   1173.78   0.000019    0.09  0.000005  ( 0.002065 -0.000839 -0.000125)
 94:   1175.47   0.000007    0.03  0.000002  (-0.000227  0.001310 -0.000201)
 95:   1201.64   0.000331    1.67  0.000086  ( 0.002535  0.006997 -0.005535)
 96:   1202.73   0.000111    0.56  0.000029  (-0.000840 -0.003340 -0.004103)
 97:   1207.56   0.000076    0.39  0.000020  ( 0.003210  0.000215  0.003060)
 98:   1212.21   0.000184    0.93  0.000047  ( 0.001847 -0.001001 -0.006546)
 99:   1214.68   0.000629    3.18  0.000162  ( 0.002014  0.005916 -0.011073)
100:   1226.05   0.000579    2.93  0.000147  (-0.006433  0.009869  0.002943)
101:   1237.96   0.001873    9.47  0.000472  (-0.008369 -0.020048  0.000532)
102:   1248.04   0.000508    2.57  0.000127  ( 0.010306 -0.003052 -0.003384)
103:   1251.47   0.000492    2.49  0.000123  ( 0.005139 -0.009077 -0.003734)
104:   1286.37   0.001516    7.66  0.000368  (-0.005986  0.017750  0.004097)
105:   1295.95   0.000460    2.32  0.000111  ( 0.009994 -0.000581  0.003249)
106:   1315.15   0.000080    0.41  0.000019  (-0.003816 -0.001333  0.001647)
107:   1325.23   0.000305    1.54  0.000072  ( 0.008144 -0.000971 -0.002157)
108:   1330.15   0.000319    1.61  0.000075  ( 0.007457  0.000468  0.004363)
109:   1351.71   0.000239    1.21  0.000055  (-0.006595  0.003411  0.000199)
110:   1352.67   0.000005    0.03  0.000001  (-0.000764  0.000575  0.000564)
111:   1356.74   0.000487    2.46  0.000112  ( 0.007075  0.004451 -0.006497)
112:   1362.87   0.000087    0.44  0.000020  ( 0.000815 -0.004006  0.001805)
113:   1371.99   0.000099    0.50  0.000023  ( 0.002127 -0.002914  0.003084)
114:   1392.12   0.000243    1.23  0.000054  (-0.006771  0.002048 -0.002109)
115:   1414.55   0.001928    9.75  0.000425  (-0.014777 -0.013042  0.006080)
116:   1466.21   0.001370    6.92  0.000292  (-0.000862 -0.016749  0.003208)
117:   1479.80   0.000229    1.16  0.000048  (-0.003676  0.005660 -0.001644)
118:   1497.29   0.004096   20.70  0.000854  ( 0.024518  0.015842  0.001267)
119:   1498.28   0.000984    4.97  0.000205  (-0.011159  0.007699  0.004603)
120:   1501.56   0.001897    9.59  0.000394  ( 0.007124 -0.011101  0.014844)
121:   1532.69   0.000916    4.63  0.000187  (-0.008912 -0.007386  0.007250)
122:   1535.60   0.005357   27.07  0.001089  (-0.020889  0.016700  0.019323)
123:   1542.63   0.012970   65.55  0.002624  ( 0.001281 -0.023867  0.045305)
124:   1547.64   0.004012   20.28  0.000809  ( 0.027770 -0.005885  0.001789)
125:   1561.27   0.000216    1.09  0.000043  ( 0.000615 -0.000314 -0.006532)
126:   1641.82   0.000290    1.47  0.000055  (-0.000455 -0.000589 -0.007393)
127:   1642.44   0.000516    2.61  0.000098  (-0.009174  0.003718  0.000003)
128:   1657.66   0.000410    2.07  0.000077  (-0.003439 -0.008050  0.000794)
129:   1660.53   0.000209    1.05  0.000039  ( 0.001780 -0.001135 -0.005897)
130:   1661.58   0.003512   17.75  0.000660  (-0.014063  0.007040  0.020304)
131:   1662.34   0.002523   12.75  0.000474  (-0.012376  0.017890  0.000663)
132:   1680.45   0.005629   28.44  0.001045  ( 0.004649 -0.011595  0.029819)
133:   1684.46   0.001412    7.13  0.000262  (-0.015817  0.000687  0.003298)
134:   3018.88   0.006015   30.40  0.000622  ( 0.004396 -0.022876 -0.008894)
135:   3110.88   0.003334   16.85  0.000334  ( 0.000523 -0.011437  0.014260)
136:   3173.41   0.001935    9.78  0.000190  ( 0.009034 -0.005403  0.008914)
137:   3179.43   0.000562    2.84  0.000055  (-0.006260 -0.002115  0.003392)
138:   3181.75   0.002494   12.60  0.000245  ( 0.005282 -0.001034  0.014684)
139:   3183.92   0.002132   10.78  0.000209  (-0.009502 -0.004655  0.009850)
140:   3184.18   0.001833    9.26  0.000180  (-0.006160  0.009146 -0.007617)
141:   3188.51   0.000886    4.48  0.000087  (-0.001183 -0.006108  0.006929)
142:   3194.59   0.000956    4.83  0.000093  (-0.004132 -0.005905  0.006441)
143:   3194.78   0.000999    5.05  0.000098  ( 0.008530  0.001852 -0.004621)
144:   3196.47   0.000133    0.67  0.000013  ( 0.001383 -0.002922 -0.001578)
145:   3196.66   0.000291    1.47  0.000028  ( 0.005061 -0.000954 -0.001371)
146:   3197.86   0.001895    9.58  0.000185  ( 0.007948  0.005989 -0.009269)
147:   3204.42   0.003630   18.35  0.000354  (-0.003579 -0.014252  0.011730)
148:   3205.34   0.004231   21.38  0.000412  (-0.010825  0.002901 -0.016922)
149:   3205.79   0.005957   30.10  0.000580  (-0.022637 -0.001497  0.008073)
150:   3206.00   0.001308    6.61  0.000127  ( 0.009770 -0.003158 -0.004679)
151:   3217.40   0.006266   31.67  0.000608  (-0.018862 -0.007922  0.013757)
152:   3217.49   0.006305   31.86  0.000611  ( 0.023357 -0.003776  0.007188)
153:   3218.72   0.000096    0.49  0.000009  (-0.002734  0.000146  0.001359)
154:   3218.88   0.005681   28.71  0.000551  ( 0.008001 -0.016631  0.014496)
155:   3223.79   0.002301   11.63  0.000223  (-0.006603 -0.003699  0.012861)
156:   3225.19   0.001240    6.27  0.000120  (-0.000588 -0.005194 -0.009626)
157:   3233.82   0.001050    5.31  0.000101  ( 0.009197  0.004055  0.000555)
158:   3239.78   0.000524    2.65  0.000050  ( 0.001187 -0.002958  0.006347)

--------------------------
THERMOCHEMISTRY AT 298.15K
--------------------------

Temperature         ...   298.15 K
Pressure            ...     1.00 atm
Total Mass          ...   361.51 AMU
Quasi RRHO          ...     True
Cut-Off Frequency   ...     1.00 cm^-1

Throughout the following assumptions are being made:
  (1) The electronic state is orbitally nondegenerate
      but the spin degeneracy is treated
  (2) There are no thermally accessible electronically excited states
  (3) Hindered rotations indicated by low frequency modes are not
      treated as such but are treated as vibrations and this may
      cause some error
  (4) All equations used are the standard statistical mechanics
      equations for an ideal gas
  (5) All vibrations are strictly harmonic

freq.       6.84  E(vib)   ...       0.58
freq.      13.99  E(vib)   ...       0.57
freq.      37.91  E(vib)   ...       0.54
freq.      42.32  E(vib)   ...       0.53
freq.      48.37  E(vib)   ...       0.53
freq.      61.04  E(vib)   ...       0.51
freq.      68.08  E(vib)   ...       0.50
freq.      80.08  E(vib)   ...       0.49
freq.      89.28  E(vib)   ...       0.47
freq.      96.14  E(vib)   ...       0.47
freq.     117.95  E(vib)   ...       0.44
freq.     164.57  E(vib)   ...       0.39
freq.     176.00  E(vib)   ...       0.38
freq.     194.35  E(vib)   ...       0.36
freq.     208.78  E(vib)   ...       0.34
freq.     232.43  E(vib)   ...       0.32
freq.     244.39  E(vib)   ...       0.31
freq.     276.06  E(vib)   ...       0.28
freq.     282.36  E(vib)   ...       0.28
freq.     315.88  E(vib)   ...       0.25
freq.     369.55  E(vib)   ...       0.21
freq.     421.40  E(vib)   ...       0.18
freq.     422.18  E(vib)   ...       0.18
freq.     423.48  E(vib)   ...       0.18
freq.     432.31  E(vib)   ...       0.18
freq.     468.66  E(vib)   ...       0.16
freq.     491.60  E(vib)   ...       0.14
freq.     505.41  E(vib)   ...       0.14
freq.     511.29  E(vib)   ...       0.14
freq.     527.54  E(vib)   ...       0.13
freq.     536.41  E(vib)   ...       0.12
freq.     551.97  E(vib)   ...       0.12
freq.     569.95  E(vib)   ...       0.11
freq.     631.93  E(vib)   ...       0.09
freq.     633.92  E(vib)   ...       0.09
freq.     637.82  E(vib)   ...       0.09
freq.     638.22  E(vib)   ...       0.09
freq.     653.43  E(vib)   ...       0.08
freq.     658.58  E(vib)   ...       0.08
freq.     711.89  E(vib)   ...       0.07
freq.     719.28  E(vib)   ...       0.07
freq.     723.47  E(vib)   ...       0.07
freq.     731.31  E(vib)   ...       0.06
freq.     744.19  E(vib)   ...       0.06
freq.     764.78  E(vib)   ...       0.06
freq.     772.90  E(vib)   ...       0.05
freq.     784.16  E(vib)   ...       0.05
freq.     793.96  E(vib)   ...       0.05
freq.     807.73  E(vib)   ...       0.05
freq.     833.73  E(vib)   ...       0.04
freq.     845.95  E(vib)   ...       0.04
freq.     865.67  E(vib)   ...       0.04
freq.     869.17  E(vib)   ...       0.04
freq.     877.38  E(vib)   ...       0.04
freq.     879.35  E(vib)   ...       0.04
freq.     884.02  E(vib)   ...       0.04
freq.     902.37  E(vib)   ...       0.03
freq.     931.46  E(vib)   ...       0.03
freq.     945.58  E(vib)   ...       0.03
freq.     952.55  E(vib)   ...       0.03
freq.     953.29  E(vib)   ...       0.03
freq.     976.10  E(vib)   ...       0.03
freq.    1007.13  E(vib)   ...       0.02
freq.    1009.33  E(vib)   ...       0.02
freq.    1013.07  E(vib)   ...       0.02
freq.    1013.42  E(vib)   ...       0.02
freq.    1017.19  E(vib)   ...       0.02
freq.    1018.12  E(vib)   ...       0.02
freq.    1019.28  E(vib)   ...       0.02
freq.    1021.04  E(vib)   ...       0.02
freq.    1021.69  E(vib)   ...       0.02
freq.    1024.21  E(vib)   ...       0.02
freq.    1025.17  E(vib)   ...       0.02
freq.    1026.01  E(vib)   ...       0.02
freq.    1032.18  E(vib)   ...       0.02
freq.    1058.60  E(vib)   ...       0.02
freq.    1059.99  E(vib)   ...       0.02
freq.    1063.95  E(vib)   ...       0.02
freq.    1064.95  E(vib)   ...       0.02
freq.    1086.62  E(vib)   ...       0.02
freq.    1110.90  E(vib)   ...       0.01
freq.    1114.20  E(vib)   ...       0.01
freq.    1117.30  E(vib)   ...       0.01
freq.    1122.92  E(vib)   ...       0.01
freq.    1173.30  E(vib)   ...       0.01
freq.    1173.70  E(vib)   ...       0.01
freq.    1173.78  E(vib)   ...       0.01
freq.    1175.47  E(vib)   ...       0.01
freq.    1201.64  E(vib)   ...       0.01
freq.    1202.73  E(vib)   ...       0.01
freq.    1207.56  E(vib)   ...       0.01
freq.    1212.21  E(vib)   ...       0.01
freq.    1214.68  E(vib)   ...       0.01
freq.    1226.05  E(vib)   ...       0.01
freq.    1237.96  E(vib)   ...       0.01
freq.    1248.04  E(vib)   ...       0.01
freq.    1251.47  E(vib)   ...       0.01
freq.    1286.37  E(vib)   ...       0.01
freq.    1295.95  E(vib)   ...       0.01
freq.    1315.15  E(vib)   ...       0.01
freq.    1325.23  E(vib)   ...       0.01
freq.    1330.15  E(vib)   ...       0.01
freq.    1351.71  E(vib)   ...       0.01
freq.    1352.67  E(vib)   ...       0.01
freq.    1356.74  E(vib)   ...       0.01
freq.    1362.87  E(vib)   ...       0.01
freq.    1371.99  E(vib)   ...       0.01
freq.    1392.12  E(vib)   ...       0.00
freq.    1414.55  E(vib)   ...       0.00
freq.    1466.21  E(vib)   ...       0.00
freq.    1479.80  E(vib)   ...       0.00
freq.    1497.29  E(vib)   ...       0.00
freq.    1498.28  E(vib)   ...       0.00
freq.    1501.56  E(vib)   ...       0.00
freq.    1532.69  E(vib)   ...       0.00
freq.    1535.60  E(vib)   ...       0.00
freq.    1542.63  E(vib)   ...       0.00
freq.    1547.64  E(vib)   ...       0.00
freq.    1561.27  E(vib)   ...       0.00
freq.    1641.82  E(vib)   ...       0.00
freq.    1642.44  E(vib)   ...       0.00
freq.    1657.66  E(vib)   ...       0.00
freq.    1660.53  E(vib)   ...       0.00
freq.    1661.58  E(vib)   ...       0.00
freq.    1662.34  E(vib)   ...       0.00
freq.    1680.45  E(vib)   ...       0.00
freq.    1684.46  E(vib)   ...       0.00
freq.    3018.88  E(vib)   ...       0.00
freq.    3110.88  E(vib)   ...       0.00
freq.    3173.41  E(vib)   ...       0.00
freq.    3179.43  E(vib)   ...       0.00
freq.    3181.75  E(vib)   ...       0.00
freq.    3183.92  E(vib)   ...       0.00
freq.    3184.18  E(vib)   ...       0.00
freq.    3188.51  E(vib)   ...       0.00
freq.    3194.59  E(vib)   ...       0.00
freq.    3194.78  E(vib)   ...       0.00
freq.    3196.47  E(vib)   ...       0.00
freq.    3196.66  E(vib)   ...       0.00
freq.    3197.86  E(vib)   ...       0.00
freq.    3204.42  E(vib)   ...       0.00

Rotational constants in cm-1:     0.007335     0.005170     0.004391

                             ****ORCA TERMINATED NORMALLY****
TOTAL RUN TIME: 0 days 4 hours 41 minutes 47 seconds 123 msec
